#(C) 2011 by Fachinformationszentrum Karlsruhe. All rights reserved.
data_1537-ICSD
_database_code_ICSD 1537
_audit_creation_date 1980-01-01
_audit_update_record 2003-04-01
_chemical_name_systematic 'Rubidium dihydrogenphosphate(V) - II'
_chemical_formula_structural 'Rb (H2 P O4)'
_chemical_formula_sum 'H2 O4 P1 Rb1'
_chemical_name_structure_type KH2PO4
_exptl_crystal_density_diffrn 2.85
_publ_section_title
'A precision neutron diffraction study of tetragonal Rb H2 P O4'
loop_
_citation_id
_citation_journal_full
_citation_year
_citation_journal_volume
_citation_page_first
_citation_page_last
_citation_journal_id_ASTM
primary 'Acta Crystallographica B (24,1968-38,1982)' 1978 34 1040 1042 ACBCAR
loop_
_publ_author_name
'Al Kraghouli, A.R.'
'Abdul-Wahab, B.'
'Ajaj, E.'
'Sequeira, A.'
_cell_length_a 7.622(7)
_cell_length_b 7.622(7)
_cell_length_c 7.315(9)
_cell_angle_alpha 90.
_cell_angle_beta 90.
_cell_angle_gamma 90.
_cell_volume 424.96
_cell_formula_units_Z 4
_symmetry_space_group_name_H-M 'I -4 2 d'
_symmetry_Int_Tables_number 122
_refine_ls_R_factor_all 0.0175
loop_
_symmetry_equiv_pos_site_id
_symmetry_equiv_pos_as_xyz
1 '-y, -x+1/2, z+1/4'
2 'y, -x, -z'
3 'y, x+1/2, z+1/4'
4 '-y, x, -z'
5 'x, -y+1/2, -z+1/4'
6 '-x, -y, z'
7 '-x, y+1/2, -z+1/4'
8 'x, y, z'
9 '-y+1/2, -x, z+3/4'
10 'y+1/2, -x+1/2, -z+1/2'
11 'y+1/2, x, z+3/4'
12 '-y+1/2, x+1/2, -z+1/2'
13 'x+1/2, -y, -z+3/4'
14 '-x+1/2, -y+1/2, z+1/2'
15 '-x+1/2, y, -z+3/4'
16 'x+1/2, y+1/2, z+1/2'
loop_
_atom_type_symbol
_atom_type_oxidation_number
O2- -2
H1+ 1
Rb1+ 1
P5+ 5
loop_
_atom_site_label
_atom_site_type_symbol
_atom_site_symmetry_multiplicity
_atom_site_Wyckoff_symbol
_atom_site_fract_x
_atom_site_fract_y
_atom_site_fract_z
_atom_site_B_iso_or_equiv
_atom_site_occupancy
_atom_site_attached_hydrogens
O1 O2- 16 e 0.1421(2) 0.0863(2) 0.1199(1) . 1. 0
H1 H1+ 16 e 0.1382(6) 0.223 0.125 . 0.5 0
Rb1 Rb1+ 4 b 0 0 0.5 . 1. 0
P1 P5+ 4 a 0 0 0 . 1. 0
loop_
_atom_site_aniso_label
_atom_site_aniso_type_symbol
_atom_site_aniso_beta_11
_atom_site_aniso_beta_22
_atom_site_aniso_beta_33
_atom_site_aniso_beta_12
_atom_site_aniso_beta_13
_atom_site_aniso_beta_23
O1 O2- 0.0071(3) 0.0072(5) 0.0089(3) 0.0006(1) -.0023(2) -.0022(2)
H1 H1+ 0.0094(5) 0.0077(17) 0.0137(7) 0.0012(8) -.0049(14) 0.0046(6)
Rb1 Rb1+ 0.0079(4) 0.0079(4) 0.0058(5) 0 0 0
P1 P5+ 0.0051(5) 0.0051(5) 0.0071(8) 0 0 0
#End of data_1537-ICSD
